
    -----------------------------------------------------------------------
          Psi4: An Open-Source Ab Initio Electronic Structure Package
                               Psi4 1.4a3.dev225 

                         Git: Rev {HEAD} 7105e37 


    D. G. A. Smith, L. A. Burns, A. C. Simmonett, R. M. Parrish,
    M. C. Schieber, R. Galvelis, P. Kraus, H. Kruse, R. Di Remigio,
    A. Alenaizan, A. M. James, S. Lehtola, J. P. Misiewicz, M. Scheurer,
    R. A. Shaw, J. B. Schriber, Y. Xie, Z. L. Glick, D. A. Sirianni,
    J. S. O'Brien, J. M. Waldrop, A. Kumar, E. G. Hohenstein,
    B. P. Pritchard, B. R. Brooks, H. F. Schaefer III, A. Yu. Sokolov,
    K. Patkowski, A. E. DePrince III, U. Bozkaya, R. A. King,
    F. A. Evangelista, J. M. Turney, T. D. Crawford, C. D. Sherrill,
    J. Chem. Phys. 152(18) 184108 (2020). https://doi.org/10.1063/5.0006002

                            Additional Code Authors
    E. T. Seidl, C. L. Janssen, E. F. Valeev, M. L. Leininger,
    J. F. Gonthier, R. M. Richard, H. R. McAlexander, M. Saitow, X. Wang,
    P. Verma, and M. H. Lechner

             Previous Authors, Complete List of Code Contributors,
                       and Citations for Specific Modules
    https://github.com/psi4/psi4/blob/master/codemeta.json
    https://github.com/psi4/psi4/graphs/contributors
    http://psicode.org/psi4manual/master/introduction.html#citing-psifour

    -----------------------------------------------------------------------


    Psi4 started on: Friday, 30 July 2021 07:33PM

    Process ID: 17856
    Host:       DESKTOP-SQPD2D3
    PSIDATADIR: /home/mhuang/psi4_install/share/psi4
    Memory:     500.0 MiB
    Threads:    1
    
  ==> Input File <==

--------------------------------------------------------------------------
#! Generated using commit GITCOMMIT
# SA-GASSCF-DSRG-MRPT2 test on H2O
# averaging over the ground state and core-excited singlet B1 state
# at most one electron occupies the core orbital for B1 state

import forte

refscf = -76.0172965561
refgasscf = -65.866749078651708
refdsrg = -66.08575361222897

memory 1000 mb
molecule h2o{
   O
   H  1 1.00
   H  1 1.00 2 103.1
}

set global {
  basis 6-31g**
  e_convergence 10
  d_convergence 10
  r_convergence 10
  guess gwh
  scf_type pk
  reference rhf
}

set forte {
  e_convergence 10
  active_ref_type gas
  GAS1 [1,0,0,0]
  GAS2 [3,0,1,2]
  GAS1MAX [2,1]
  GAS1MIN [0,0]
  AVG_STATE [[0,1,1],[2,1,1]]
  job_type mcscf_two_step
  casscf_ci_solver detci
  casscf_maxiter 100
  casscf_e_convergence 1e-10
  casscf_g_convergence 1e-8
  casscf_active_frozen_orbital [0]
  casscf_micro_maxiter 2
}

escf, wfn = energy('scf', return_wfn=True)
egasscf, wfn_gasscf = energy('forte', ref_wfn=wfn, return_wfn=True)
compare_values(refgasscf, egasscf, 9, "GASSCF energy")

set forte {
  job_type newdriver
  active_space_solver aci
  one_cycle true
  sigma 0.00
  correlation_solver dsrg-mrpt2
  dsrg_s 1.0
  calc_type sa
}

edsrg = energy('forte', ref_wfn=wfn_gasscf)
compare_values(refdsrg, edsrg, 9, "GASSCF-DSRG-MRPT2 energy")--------------------------------------------------------------------------

  Memory set to 953.674 MiB by Python driver.

Scratch directory: /tmp/

*** tstart() called on DESKTOP-SQPD2D3
*** at Fri Jul 30 19:34:01 2021

   => Loading Basis Set <=

    Name: 6-31G**
    Role: ORBITAL
    Keyword: BASIS
    atoms 1   entry O          line   149 file /home/mhuang/psi4_install/share/psi4/basis/6-31gss.gbs 
    atoms 2-3 entry H          line    44 file /home/mhuang/psi4_install/share/psi4/basis/6-31gss.gbs 


         ---------------------------------------------------------
                                   SCF
               by Justin Turney, Rob Parrish, Andy Simmonett
                          and Daniel G. A. Smith
                              RHF Reference
                        1 Threads,    953 MiB Core
         ---------------------------------------------------------

  ==> Geometry <==

    Molecular point group: c2v
    Full point group: C2v

    Geometry (in Angstrom), charge = 0, multiplicity = 1:

       Center              X                  Y                   Z               Mass       
    ------------   -----------------  -----------------  -----------------  -----------------
         O            0.000000000000     0.000000000000    -0.069592187400    15.994914619570
         H            0.000000000000    -0.783151105291     0.552239257834     1.007825032230
         H            0.000000000000     0.783151105291     0.552239257834     1.007825032230

  Running in c2v symmetry.

  Rotational constants: A =     24.35462  B =     13.63610  C =      8.74166 [cm^-1]
  Rotational constants: A = 730133.21529  B = 408800.04239  C = 262068.46393 [MHz]
  Nuclear repulsion =    8.804686653247025

  Charge       = 0
  Multiplicity = 1
  Electrons    = 10
  Nalpha       = 5
  Nbeta        = 5

  ==> Algorithm <==

  SCF Algorithm Type is PK.
  DIIS enabled.
  MOM disabled.
  Fractional occupation disabled.
  Guess Type is GWH.
  Energy threshold   = 1.00e-10
  Density threshold  = 1.00e-10
  Integral threshold = 1.00e-12

  ==> Primary Basis <==

  Basis Set: 6-31G**
    Blend: 6-31G**
    Number of shells: 12
    Number of basis functions: 25
    Number of Cartesian functions: 25
    Spherical Harmonics?: false
    Max angular momentum: 2

  ==> Integral Setup <==

  Using in-core PK algorithm.
   Calculation information:
      Number of atoms:                   3
      Number of AO shells:              12
      Number of primitives:             25
      Number of atomic orbitals:        25
      Number of basis functions:        25

      Integral cutoff                 1.00e-12
      Number of threads:                 1

  Performing in-core PK
  Using 105950 doubles for integral storage.
  We computed 3081 shell quartets total.
  Whereas there are 3081 unique shell quartets.

  ==> DiskJK: Disk-Based J/K Matrices <==

    J tasked:                  Yes
    K tasked:                  Yes
    wK tasked:                  No
    Memory [MiB]:              715
    Schwarz Cutoff:          1E-12

    OpenMP threads:              1

  Minimum eigenvalue in the overlap matrix is 2.2571686435E-02.
  Reciprocal condition number of the overlap matrix is 5.1514795888E-03.
    Using symmetric orthogonalization.

  ==> Pre-Iterations <==

  SCF Guess: Generalized Wolfsberg-Helmholtz.

   -------------------------------------------------------
    Irrep   Nso     Nmo     Nalpha   Nbeta   Ndocc  Nsocc
   -------------------------------------------------------
     A1        12      12       3       3       3       0
     A2         2       2       0       0       0       0
     B1         4       4       1       1       1       0
     B2         7       7       1       1       1       0
   -------------------------------------------------------
    Total      25      25       5       5       5       0
   -------------------------------------------------------

  ==> Iterations <==

                        Total Energy        Delta E     RMS |[F,P]|

   @RHF iter   1:   -74.69504180587799   -7.46950e+01   1.19379e-01 DIIS
   @RHF iter   2:   -75.63888192728950   -9.43840e-01   7.21511e-02 DIIS
   @RHF iter   3:   -76.01069228329179   -3.71810e-01   7.66380e-03 DIIS
   @RHF iter   4:   -76.01708824562716   -6.39596e-03   1.07789e-03 DIIS
   @RHF iter   5:   -76.01728429322296   -1.96048e-04   2.45122e-04 DIIS
   @RHF iter   6:   -76.01729587541962   -1.15822e-05   5.16886e-05 DIIS
   @RHF iter   7:   -76.01729653888074   -6.63461e-07   8.85969e-06 DIIS
   @RHF iter   8:   -76.01729655493951   -1.60588e-08   1.68352e-06 DIIS
   @RHF iter   9:   -76.01729655604063   -1.10113e-09   3.99227e-07 DIIS
   @RHF iter  10:   -76.01729655609131   -5.06759e-11   4.32450e-08 DIIS
   @RHF iter  11:   -76.01729655609149   -1.84741e-13   4.32369e-09 DIIS
   @RHF iter  12:   -76.01729655609165   -1.56319e-13   4.74228e-10 DIIS
   @RHF iter  13:   -76.01729655609158    7.10543e-14   4.31653e-11 DIIS
  Energy and wave function converged.


  ==> Post-Iterations <==

    Orbital Energies [Eh]
    ---------------------

    Doubly Occupied:                                                      

       1A1   -20.569000     2A1    -1.320609     1B2    -0.678724  
       3A1    -0.563930     1B1    -0.495004  

    Virtual:                                                              

       4A1     0.202466     2B2     0.292719     3B2     0.981164  
       5A1     1.056318     6A1     1.129179     2B1     1.168639  
       4B2     1.294985     7A1     1.413596     1A2     1.802875  
       8A1     1.806916     3B1     1.918871     9A1     2.513249  
       5B2     2.537822     6B2     2.713577     2A2     2.921065  
       4B1     2.947486    10A1     3.291755    11A1     3.620730  
       7B2     3.874917    12A1     4.077740  

    Final Occupation by Irrep:
             A1    A2    B1    B2 
    DOCC [     3,    0,    1,    1 ]

  @RHF Final Energy:   -76.01729655609158

   => Energetics <=

    Nuclear Repulsion Energy =              8.8046866532470247
    One-Electron Energy =                -122.3894315646924724
    Two-Electron Energy =                  37.5674483553538821
    Total Energy =                        -76.0172965560915657

Computation Completed


Properties will be evaluated at   0.000000,   0.000000,   0.000000 [a0]

Properties computed using the SCF density matrix

  Nuclear Dipole Moment: [e a0]
     X:     0.0000      Y:     0.0000      Z:     1.0351

  Electronic Dipole Moment: [e a0]
     X:     0.0000      Y:     0.0000      Z:    -0.1532

  Dipole Moment: [e a0]
     X:     0.0000      Y:     0.0000      Z:     0.8819     Total:     0.8819

  Dipole Moment: [D]
     X:     0.0000      Y:     0.0000      Z:     2.2414     Total:     2.2414


*** tstop() called on DESKTOP-SQPD2D3 at Fri Jul 30 19:34:01 2021
Module time:
	user time   =       0.10 seconds =       0.00 minutes
	system time =       0.03 seconds =       0.00 minutes
	total time  =          0 seconds =       0.00 minutes
Total time:
	user time   =       0.10 seconds =       0.00 minutes
	system time =       0.03 seconds =       0.00 minutes
	total time  =          0 seconds =       0.00 minutes

Scratch directory: /tmp/

 Data is an array -> call again
 Data is an array -> call again
  Forte
  ----------------------------------------------------------------------------
  A suite of quantum chemistry methods for strongly correlated electrons

    git branch: HEAD - git commit: 546ee104

  Developed by:
    Francesco A. Evangelista, Chenyang Li, Kevin P. Hannon,
    Jeffrey B. Schriber, Tianyuan Zhang, Chenxi Cai,
    Nan He, Nicholas Stair, Shuhe Wang, Renke Huang
  ----------------------------------------------------------------------------

  Size of Determinant class: 128 bits

  Preparing forte objects from a Psi4 Wavefunction object
  Read options for space GAS1
  Read options for space GAS2
  Read options for space GAS1
  Read options for space GAS2

  ==> MO Space Information <==

  -------------------------------------------------
                       A1    A2    B1    B2   Sum
  -------------------------------------------------
    FROZEN_DOCC         0     0     0     0     0
    RESTRICTED_DOCC     0     0     0     0     0
    GAS1                1     0     0     0     1
    GAS2                3     0     1     2     6
    GAS3                0     0     0     0     0
    GAS4                0     0     0     0     0
    GAS5                0     0     0     0     0
    GAS6                0     0     0     0     0
    RESTRICTED_UOCC     8     2     3     5    18
    FROZEN_UOCC         0     0     0     0     0
    Total              12     2     4     7    25
  -------------------------------------------------   => Loading Basis Set <=

    Name: 6-31G**
    Role: ORBITAL
    Keyword: BASIS
    atoms 1   entry O          line   149 file /home/mhuang/psi4_install/share/psi4/basis/6-31gss.gbs 
    atoms 2-3 entry H          line    44 file /home/mhuang/psi4_install/share/psi4/basis/6-31gss.gbs 


  Checking orbital orthonormality against current geometry ... Done (OK)

   => Loading Basis Set <=

    Name: STO-3G
    Role: ORBITAL
    Keyword: MINAO_BASIS
    atoms 1   entry O          line    81 file /home/mhuang/psi4_install/share/psi4/basis/sto-3g.gbs 
    atoms 2-3 entry H          line    19 file /home/mhuang/psi4_install/share/psi4/basis/sto-3g.gbs 


  ==> List of Planes Requested <==

  Forte will use psi4 integrals

  ==> Primary Basis Set Summary <==

  Basis Set: 6-31G**
    Blend: 6-31G**
    Number of shells: 12
    Number of basis functions: 25
    Number of Cartesian functions: 25
    Spherical Harmonics?: false
    Max angular momentum: 2


  JK created using conventional PK integrals
  Using in-core PK algorithm.
   Calculation information:
      Number of atoms:                   3
      Number of AO shells:              12
      Number of primitives:             25
      Number of atomic orbitals:        25
      Number of basis functions:        25

      Integral cutoff                 1.00e-12
      Number of threads:                 1

  Performing in-core PK
  Using 105950 doubles for integral storage.
  We computed 3081 shell quartets total.
  Whereas there are 3081 unique shell quartets.

  ==> DiskJK: Disk-Based J/K Matrices <==

    J tasked:                  Yes
    K tasked:                  Yes
    wK tasked:                  No
    Memory [MiB]:              762
    Schwarz Cutoff:          1E-12

    OpenMP threads:              1



  ==> Integral Transformation <==

  Number of molecular orbitals:                         25
  Number of correlated molecular orbitals:              25
  Number of frozen occupied orbitals:                    0
  Number of frozen unoccupied orbitals:                  0
  Two-electron integral type:                 Conventional


  Skip integral allocation and transformation for AO-driven CASSCF.

          -----------------------------------------------------------
                  Multi-Configurational Self Consistent Field
                Two-Step Approximate Second-Order AO Algorithm
            written by Chenyang Li, Kevin P. Hannon, and Shuhe Wang
          -----------------------------------------------------------


  ==> Calculation Information <==

    Integral type                               CONVENTIONAL
    CI solver type                                     DETCI
    Final orbital type                             CANONICAL
    Derivative type                                     NONE
    Optimize orbitals                                   TRUE
    Include internal rotations                         FALSE
    Debug printing                                     FALSE
    Energy convergence                             1.000e-10
    Gradient convergence                           1.000e-08
    Max value for rotation                         5.000e-01
    Printing level                                         1
    Max number of macro iterations                       100
    Max number of micro iterations                         2
    Min number of micro iterations                         2
    DIIS start                                             2
    Min DIIS vectors                                       2
    Max DIIS vectors                                       8
    Frequency of DIIS extrapolation                        1


  ==> Independent Orbital Rotations <==

    ORBITAL SPACES                        A1     A2     B1     B2
    -------------------------------------------------------------
               GAS1 /            GAS2      0      0      0      0
             ACTIVE / RESTRICTED_DOCC      0      0      0      0
    RESTRICTED_UOCC /          ACTIVE     24      0      3     10
    RESTRICTED_UOCC / RESTRICTED_DOCC      0      0      0      0
    -------------------------------------------------------------

  ==> Summary of Active Space Solver Input <==

    Irrep.  Multi.(2ms)      N
    --------------------------
       A1      1  (  0)      1
       B1      1  (  0)      1
    --------------------------
    N: number of roots
    ms: spin z component
    Total number of roots:   2
    --------------------------


  ==> General Determinant-Based CI Solver <==

  Number of active orbitals: 7
  Number of active alpha electrons: 5
  Number of active beta electrons: 5

  ==> GAS Orbital Energies from SCF <==

    GAS        Energy  Index
    ------------------------
     1   -20.56899957      0
     2    -1.32060927      1
     2    -0.56393045      2
     2     0.20246590      3
     2    -0.49500394      4
     2    -0.67872419      5
     2     0.29271934      6
    ------------------------

  ==> Number of Electrons in GAS <==

    GAS  MAX  MIN
    -------------
      1    2    0
      2   10    0
    -------------

  ==> Possible Electron Occupations in GAS <==

    Config.  1_A  1_B  2_A  2_B
    ---------------------------
         1     1    1    4    4
         2     1    0    4    5
         3     0    1    5    4
         4     0    0    5    5
    ---------------------------
    n_A/B: # of alpha/beta electrons in GASn

  ==> Building GAS Determinants <==

    Config.  #Determinants     Time/s
    ---------------------------------
         1              65  8.590e-05
         2              27  3.400e-05
         3              27  3.000e-05
         4              14  2.430e-05
    ---------------------------------
    Total:             133  2.350e-04
    ---------------------------------
  Number of determinants (GAS): 133

  ==> Diagonalizing Hamiltonian Singlet (Ms = 0) A1 <==


  Davidson-Liu solver algorithm using SigmaVectorFull sigma algorithm

  Performing diagonalization of the H matrix
  Found 70 roots with 2S+1 = 1 *
  Found 56 roots with 2S+1 = 3
  Found 7 roots with 2S+1 = 5

  Done diagonalizing Hamiltonian, 4.762e-03 seconds.

  ==> Computing 1 Coupling Lists <==

        α          1.210e-04 seconds
        β          2.364e-04 seconds
  Time spent building 1-rdm: 7.020e-05 seconds

  ==> CI Vectors & Occupation Number for Singlet (Ms = 0) A1 <==

  Important determinants with coefficients |C| >= 5.000e-02

  ---- Root No. 0 ----

       A1 B1 B2    Coefficients
    ---------------------------
     2220  2 20    0.9955499201
    ---------------------------

    Occupation Numbers:
        1A1   1.99999946    1B1   1.99976302    2A1   1.99773422    3A1   1.99445525
        1B2   1.99078329    2B2   0.00922180    4A1   0.00804297

    Total Energy:  -76.029945793737014

  ==> Permanent Dipole Moments [e a0] for Singlet (Ms = 0) A1 <==

       State           DM_X           DM_Y           DM_Z           |DM|
    --------------------------------------------------------------------
         0A1     0.00000000     0.00000000     0.82078282     0.82078282
    --------------------------------------------------------------------

  ==> General Determinant-Based CI Solver <==

  Number of active orbitals: 7
  Number of active alpha electrons: 5
  Number of active beta electrons: 5

  ==> GAS Orbital Energies from SCF <==

    GAS        Energy  Index
    ------------------------
     1   -20.56899957      0
     2    -1.32060927      1
     2    -0.56393045      2
     2     0.20246590      3
     2    -0.49500394      4
     2    -0.67872419      5
     2     0.29271934      6
    ------------------------

  ==> Number of Electrons in GAS <==

    GAS  MAX  MIN
    -------------
      1    1    0
      2   10    0
    -------------

  ==> Possible Electron Occupations in GAS <==

    Config.  1_A  1_B  2_A  2_B
    ---------------------------
         1     1    0    4    5
         2     0    1    5    4
         3     0    0    5    5
    ---------------------------
    n_A/B: # of alpha/beta electrons in GASn

  ==> Building GAS Determinants <==

    Config.  #Determinants     Time/s
    ---------------------------------
         1              17  4.910e-05
         2              17  3.130e-05
         3               6  2.390e-05
    ---------------------------------
    Total:              40  1.513e-04
    ---------------------------------
  Number of determinants (GAS): 40

  ==> Diagonalizing Hamiltonian Singlet (Ms = 0) B1 <==


  Davidson-Liu solver algorithm using SigmaVectorFull sigma algorithm

  Performing diagonalization of the H matrix
  Found 16 roots with 2S+1 = 1 *
  Found 20 roots with 2S+1 = 3
  Found 4 roots with 2S+1 = 5

  Done diagonalizing Hamiltonian, 4.866e-04 seconds.

  ==> Computing 1 Coupling Lists <==

        α          4.160e-05 seconds
        β          4.130e-05 seconds
  Time spent building 1-rdm: 1.940e-05 seconds

  ==> CI Vectors & Occupation Number for Singlet (Ms = 0) B1 <==

  Important determinants with coefficients |C| >= 5.000e-02

  ---- Root No. 0 ----

       A1 B1 B2    Coefficients
    ---------------------------
     a222  b 20    0.5790981417
     b222  a 20    0.5790981417
     a220  b 22    0.3011896205
     b220  a 22    0.3011896205
     a222  b ba    0.1716027459
     b222  a ab    0.1716027459
     b222  a ba    0.1702263947
     a222  b ab    0.1702263947
     a2ba  b 22   -0.0656026517
     b2ab  a 22   -0.0656026517
     a2ab  b 22   -0.0653202373
     b2ba  a 22   -0.0653202373
    ---------------------------

    Occupation Numbers:
        2A1   1.99080470    3A1   1.98155014    1B2   1.87455226    4A1   1.61136986
        1B1   1.00000000    1A1   0.99999451    2B2   0.54172852

    Total Energy:  -55.026128671639285

  ==> Permanent Dipole Moments [e a0] for Singlet (Ms = 0) B1 <==

       State           DM_X           DM_Y           DM_Z           |DM|
    --------------------------------------------------------------------
         0B1     0.00000000     0.00000000    -1.59791946     1.59791946
    --------------------------------------------------------------------

  ==> Energy Summary <==

    Multi.(2ms)  Irrep.  No.               Energy      <S^2>
    --------------------------------------------------------
       1  (  0)    A1     0      -76.029945793737       n/a
    --------------------------------------------------------
       1  (  0)    B1     0      -55.026128671639       n/a
    --------------------------------------------------------

  ==> Computing 2 Coupling Lists <==

        αα         2.161e-04 seconds
        ββ         1.835e-04 seconds
        αβ         4.477e-04 seconds
  Time spent building 2-rdm: 1.111e-04 seconds

  ==> Computing 2 Coupling Lists <==

        αα         7.050e-05 seconds
        ββ         6.790e-05 seconds
        αβ         1.577e-04 seconds
  Time spent building 2-rdm: 3.120e-05 seconds

  ==> Optimizing Orbitals for Current RDMs <==

  L-BFGS Iter:  1; fx =  -65.784202802224399; g_norm = 9.249594e-01; step = 1.000e+00
  L-BFGS Iter:  2; fx =  -65.835174609352052; g_norm = 9.249594e-01; step = 1.000e+00

  ==> MCSCF Macro Iter. 1 <==

             Energy CI (  Delta E  )         Energy Opt. (  Delta E  )  E_OPT - E_CI   Orbital RMS  Micro  DIIS
      -65.528037232688 (-6.5528e+01)    -65.835174609352 (-6.5835e+01)   -3.0714e-01    1.5206e-01    2/N

  ==> Summary of Active Space Solver Input <==

    Irrep.  Multi.(2ms)      N
    --------------------------
       A1      1  (  0)      1
       B1      1  (  0)      1
    --------------------------
    N: number of roots
    ms: spin z component
    Total number of roots:   2
    --------------------------


  ==> General Determinant-Based CI Solver <==

  Number of active orbitals: 7
  Number of active alpha electrons: 5
  Number of active beta electrons: 5

  ==> GAS Orbital Energies from SCF <==

    GAS        Energy  Index
    ------------------------
     1   -20.56899957      0
     2    -1.32060927      1
     2    -0.56393045      2
     2     0.20246590      3
     2    -0.49500394      4
     2    -0.67872419      5
     2     0.29271934      6
    ------------------------

  ==> Number of Electrons in GAS <==

    GAS  MAX  MIN
    -------------
      1    2    0
      2   10    0
    -------------

  ==> Possible Electron Occupations in GAS <==

    Config.  1_A  1_B  2_A  2_B
    ---------------------------
         1     1    1    4    4
         2     1    0    4    5
         3     0    1    5    4
         4     0    0    5    5
    ---------------------------
    n_A/B: # of alpha/beta electrons in GASn

  ==> Building GAS Determinants <==

    Config.  #Determinants     Time/s
    ---------------------------------
         1              65  5.520e-05
         2              27  3.430e-05
         3              27  3.060e-05
         4              14  2.500e-05
    ---------------------------------
    Total:             133  2.076e-04
    ---------------------------------
  Number of determinants (GAS): 133

  ==> Diagonalizing Hamiltonian Singlet (Ms = 0) A1 <==

  Reading wave function from disk as initial guess: Success!

  Davidson-Liu solver algorithm using SigmaVectorFull sigma algorithm

  Performing diagonalization of the H matrix
  Found 70 roots with 2S+1 = 1 *
  Found 56 roots with 2S+1 = 3
  Found 7 roots with 2S+1 = 5

  Done diagonalizing Hamiltonian, 3.245e-03 seconds.

  ==> Computing 1 Coupling Lists <==

        α          1.105e-04 seconds
        β          1.055e-04 seconds
  Time spent building 1-rdm: 5.510e-05 seconds

  ==> CI Vectors & Occupation Number for Singlet (Ms = 0) A1 <==

  Important determinants with coefficients |C| >= 5.000e-02

  ---- Root No. 0 ----

       A1 B1 B2    Coefficients
    ---------------------------
     2220  2 20   -0.9606701869
     2220  2 ba    0.1163819582
     2220  2 ab    0.1163819582
     22ba  2 20   -0.1065584533
     22ab  2 20   -0.1065584533
     2220  2 02    0.0760158198
    ---------------------------

    Occupation Numbers:
        1A1   1.99999464    1B1   1.99867449    2A1   1.99004850    3A1   1.96044359
        1B2   1.94774378    2B2   0.05298144    4A1   0.05011356

    Total Energy:  -75.999852539109781

  ==> Permanent Dipole Moments [e a0] for Singlet (Ms = 0) A1 <==

       State           DM_X           DM_Y           DM_Z           |DM|
    --------------------------------------------------------------------
         0A1     0.00000000     0.00000000     0.41896900     0.41896900
    --------------------------------------------------------------------

  ==> General Determinant-Based CI Solver <==

  Number of active orbitals: 7
  Number of active alpha electrons: 5
  Number of active beta electrons: 5

  ==> GAS Orbital Energies from SCF <==

    GAS        Energy  Index
    ------------------------
     1   -20.56899957      0
     2    -1.32060927      1
     2    -0.56393045      2
     2     0.20246590      3
     2    -0.49500394      4
     2    -0.67872419      5
     2     0.29271934      6
    ------------------------

  ==> Number of Electrons in GAS <==

    GAS  MAX  MIN
    -------------
      1    1    0
      2   10    0
    -------------

  ==> Possible Electron Occupations in GAS <==

    Config.  1_A  1_B  2_A  2_B
    ---------------------------
         1     1    0    4    5
         2     0    1    5    4
         3     0    0    5    5
    ---------------------------
    n_A/B: # of alpha/beta electrons in GASn

  ==> Building GAS Determinants <==

    Config.  #Determinants     Time/s
    ---------------------------------
         1              17  4.560e-05
         2              17  3.150e-05
         3               6  2.410e-05
    ---------------------------------
    Total:              40  1.489e-04
    ---------------------------------
  Number of determinants (GAS): 40

  ==> Diagonalizing Hamiltonian Singlet (Ms = 0) B1 <==

  Reading wave function from disk as initial guess: Success!

  Davidson-Liu solver algorithm using SigmaVectorFull sigma algorithm

  Performing diagonalization of the H matrix
  Found 16 roots with 2S+1 = 1 *
  Found 20 roots with 2S+1 = 3
  Found 4 roots with 2S+1 = 5

  Done diagonalizing Hamiltonian, 6.011e-04 seconds.

  ==> Computing 1 Coupling Lists <==

        α          4.220e-05 seconds
        β          4.200e-05 seconds
  Time spent building 1-rdm: 1.910e-05 seconds

  ==> CI Vectors & Occupation Number for Singlet (Ms = 0) B1 <==

  Important determinants with coefficients |C| >= 5.000e-02

  ---- Root No. 0 ----

       A1 B1 B2    Coefficients
    ---------------------------
     a222  b 20   -0.5460466823
     b222  a 20   -0.5460466823
     a220  b 22   -0.3286109089
     b220  a 22   -0.3286109089
     a222  b ba   -0.1934447625
     b222  a ab   -0.1934447625
     b222  a ba   -0.1854041323
     a222  b ab   -0.1854041323
     a2ba  b 22    0.0837924200
     b2ab  a 22    0.0837924200
     a2ab  b 22    0.0814638344
     b2ba  a 22    0.0814638344
     ba2b  a 22    0.0522351396
     ab2a  b 22    0.0522351396
     aa2b  b 22    0.0515105190
     bb2a  a 22    0.0515105190
    ---------------------------

    Occupation Numbers:
        2A1   1.98860881    3A1   1.97042408    1B2   1.84741236    4A1   1.52995662
        1B1   1.00000000    1A1   0.99998649    2B2   0.66361164

    Total Energy:  -55.724830712755939

  ==> Permanent Dipole Moments [e a0] for Singlet (Ms = 0) B1 <==

       State           DM_X           DM_Y           DM_Z           |DM|
    --------------------------------------------------------------------
         0B1     0.00000000     0.00000000    -0.92808034     0.92808034
    --------------------------------------------------------------------

  ==> Energy Summary <==

    Multi.(2ms)  Irrep.  No.               Energy      <S^2>
    --------------------------------------------------------
       1  (  0)    A1     0      -75.999852539110       n/a
    --------------------------------------------------------
       1  (  0)    B1     0      -55.724830712756       n/a
    --------------------------------------------------------

  ==> Computing 2 Coupling Lists <==

        αα         1.852e-04 seconds
        ββ         1.816e-04 seconds
        αβ         7.220e-04 seconds
  Time spent building 2-rdm: 1.826e-04 seconds

  ==> Computing 2 Coupling Lists <==

        αα         7.370e-05 seconds
        ββ         6.960e-05 seconds
        αβ         1.588e-04 seconds
  Time spent building 2-rdm: 3.090e-05 seconds

  ==> Optimizing Orbitals for Current RDMs <==

  L-BFGS Iter:  1; fx =  -65.865696285400162; g_norm = 6.274194e-02; step = 1.000e+00
  L-BFGS Iter:  2; fx =  -65.866483721074587; g_norm = 6.274194e-02; step = 1.000e+00

  ==> MCSCF Macro Iter. 2 <==

             Energy CI (  Delta E  )         Energy Opt. (  Delta E  )  E_OPT - E_CI   Orbital RMS  Micro  DIIS
      -65.862341625933 (-3.3430e-01)    -65.866483721075 (-3.1309e-02)   -4.1421e-03    1.4468e-01    2/N   S

  ==> Summary of Active Space Solver Input <==

    Irrep.  Multi.(2ms)      N
    --------------------------
       A1      1  (  0)      1
       B1      1  (  0)      1
    --------------------------
    N: number of roots
    ms: spin z component
    Total number of roots:   2
    --------------------------


  ==> General Determinant-Based CI Solver <==

  Number of active orbitals: 7
  Number of active alpha electrons: 5
  Number of active beta electrons: 5

  ==> GAS Orbital Energies from SCF <==

    GAS        Energy  Index
    ------------------------
     1   -20.56899957      0
     2    -1.32060927      1
     2    -0.56393045      2
     2     0.20246590      3
     2    -0.49500394      4
     2    -0.67872419      5
     2     0.29271934      6
    ------------------------

  ==> Number of Electrons in GAS <==

    GAS  MAX  MIN
    -------------
      1    2    0
      2   10    0
    -------------

  ==> Possible Electron Occupations in GAS <==

    Config.  1_A  1_B  2_A  2_B
    ---------------------------
         1     1    1    4    4
         2     1    0    4    5
         3     0    1    5    4
         4     0    0    5    5
    ---------------------------
    n_A/B: # of alpha/beta electrons in GASn

  ==> Building GAS Determinants <==

    Config.  #Determinants     Time/s
    ---------------------------------
         1              65  5.610e-05
         2              27  3.670e-05
         3              27  3.380e-05
         4              14  2.830e-05
    ---------------------------------
    Total:             133  2.192e-04
    ---------------------------------
  Number of determinants (GAS): 133

  ==> Diagonalizing Hamiltonian Singlet (Ms = 0) A1 <==

  Reading wave function from disk as initial guess:
  DETCI Error: Failed to open wave function file! Failed!

  Davidson-Liu solver algorithm using SigmaVectorFull sigma algorithm

  Performing diagonalization of the H matrix
  Found 70 roots with 2S+1 = 1 *
  Found 56 roots with 2S+1 = 3
  Found 7 roots with 2S+1 = 5

  Done diagonalizing Hamiltonian, 3.358e-03 seconds.

  ==> Computing 1 Coupling Lists <==

        α          1.183e-04 seconds
        β          1.114e-04 seconds
  Time spent building 1-rdm: 5.890e-05 seconds

  ==> CI Vectors & Occupation Number for Singlet (Ms = 0) A1 <==

  Important determinants with coefficients |C| >= 5.000e-02

  ---- Root No. 0 ----

       A1 B1 B2    Coefficients
    ---------------------------
     2220  2 20    0.9573756598
     22ba  2 20    0.1235927094
     22ab  2 20    0.1235927094
     2220  2 ba   -0.1118696106
     2220  2 ab   -0.1118696106
     2220  2 02   -0.0746489463
     2202  2 20   -0.0519457978
    ---------------------------

    Occupation Numbers:
        1A1   1.99999420    1B1   1.99864266    2A1   1.99026091    3A1   1.95100097
        1B2   1.94968792    4A1   0.05894072    2B2   0.05147263

    Total Energy:  -76.004967149060946

  ==> Permanent Dipole Moments [e a0] for Singlet (Ms = 0) A1 <==

       State           DM_X           DM_Y           DM_Z           |DM|
    --------------------------------------------------------------------
         0A1     0.00000000    -0.00000000     0.40028649     0.40028649
    --------------------------------------------------------------------

  ==> General Determinant-Based CI Solver <==

  Number of active orbitals: 7
  Number of active alpha electrons: 5
  Number of active beta electrons: 5

  ==> GAS Orbital Energies from SCF <==

    GAS        Energy  Index
    ------------------------
     1   -20.56899957      0
     2    -1.32060927      1
     2    -0.56393045      2
     2     0.20246590      3
     2    -0.49500394      4
     2    -0.67872419      5
     2     0.29271934      6
    ------------------------

  ==> Number of Electrons in GAS <==

    GAS  MAX  MIN
    -------------
      1    1    0
      2   10    0
    -------------

  ==> Possible Electron Occupations in GAS <==

    Config.  1_A  1_B  2_A  2_B
    ---------------------------
         1     1    0    4    5
         2     0    1    5    4
         3     0    0    5    5
    ---------------------------
    n_A/B: # of alpha/beta electrons in GASn

  ==> Building GAS Determinants <==

    Config.  #Determinants     Time/s
    ---------------------------------
         1              17  4.930e-05
         2              17  3.180e-05
         3               6  2.400e-05
    ---------------------------------
    Total:              40  1.526e-04
    ---------------------------------
  Number of determinants (GAS): 40

  ==> Diagonalizing Hamiltonian Singlet (Ms = 0) B1 <==

  Reading wave function from disk as initial guess:
  DETCI Error: Failed to open wave function file! Failed!

  Davidson-Liu solver algorithm using SigmaVectorFull sigma algorithm

  Performing diagonalization of the H matrix
  Found 16 roots with 2S+1 = 1 *
  Found 20 roots with 2S+1 = 3
  Found 4 roots with 2S+1 = 5

  Done diagonalizing Hamiltonian, 5.163e-04 seconds.

  ==> Computing 1 Coupling Lists <==

        α          4.270e-05 seconds
        β          4.150e-05 seconds
  Time spent building 1-rdm: 1.920e-05 seconds

  ==> CI Vectors & Occupation Number for Singlet (Ms = 0) B1 <==

  Important determinants with coefficients |C| >= 5.000e-02

  ---- Root No. 0 ----

       A1 B1 B2    Coefficients
    ---------------------------
     a222  b 20    0.5496891348
     b222  a 20    0.5496891348
     a220  b 22    0.3247864404
     b220  a 22    0.3247864404
     a222  b ba    0.1918023702
     b222  a ab    0.1918023702
     b222  a ba    0.1835589610
     a222  b ab    0.1835589610
     a2ba  b 22   -0.0850813896
     b2ab  a 22   -0.0850813896
     a2ab  b 22   -0.0822347087
     b2ba  a 22   -0.0822347087
     ba2b  a 22   -0.0511890018
     ab2a  b 22   -0.0511890018
     aa2b  b 22   -0.0506888497
     bb2a  a 22   -0.0506888497
    ---------------------------

    Occupation Numbers:
        2A1   1.98903622    3A1   1.96967101    1B2   1.85139425    4A1   1.53964433
        1B1   1.00000000    1A1   0.99998676    2B2   0.65026743

    Total Energy:  -55.728441454481377

  ==> Permanent Dipole Moments [e a0] for Singlet (Ms = 0) B1 <==

       State           DM_X           DM_Y           DM_Z           |DM|
    --------------------------------------------------------------------
         0B1     0.00000000    -0.00000000    -0.90920838     0.90920838
    --------------------------------------------------------------------

  ==> Energy Summary <==

    Multi.(2ms)  Irrep.  No.               Energy      <S^2>
    --------------------------------------------------------
       1  (  0)    A1     0      -76.004967149061       n/a
    --------------------------------------------------------
       1  (  0)    B1     0      -55.728441454481       n/a
    --------------------------------------------------------

  ==> Computing 2 Coupling Lists <==

        αα         1.844e-04 seconds
        ββ         1.799e-04 seconds
        αβ         4.813e-04 seconds
  Time spent building 2-rdm: 1.071e-04 seconds

  ==> Computing 2 Coupling Lists <==

        αα         7.030e-05 seconds
        ββ         6.910e-05 seconds
        αβ         1.951e-04 seconds
  Time spent building 2-rdm: 3.090e-05 seconds

  ==> Optimizing Orbitals for Current RDMs <==

  L-BFGS Iter:  1; fx =  -65.866738591783772; g_norm = 5.790197e-03; step = 1.000e+00
  L-BFGS Iter:  2; fx =  -65.866744727225182; g_norm = 5.790197e-03; step = 1.000e+00

  ==> MCSCF Macro Iter. 3 <==

             Energy CI (  Delta E  )         Energy Opt. (  Delta E  )  E_OPT - E_CI   Orbital RMS  Micro  DIIS
      -65.866704301771 (-4.3627e-03)    -65.866744727225 (-2.6101e-04)   -4.0425e-05    9.5517e-03    2/N   S

  ==> Summary of Active Space Solver Input <==

    Irrep.  Multi.(2ms)      N
    --------------------------
       A1      1  (  0)      1
       B1      1  (  0)      1
    --------------------------
    N: number of roots
    ms: spin z component
    Total number of roots:   2
    --------------------------


  ==> General Determinant-Based CI Solver <==

  Number of active orbitals: 7
  Number of active alpha electrons: 5
  Number of active beta electrons: 5

  ==> GAS Orbital Energies from SCF <==

    GAS        Energy  Index
    ------------------------
     1   -20.56899957      0
     2    -1.32060927      1
     2    -0.56393045      2
     2     0.20246590      3
     2    -0.49500394      4
     2    -0.67872419      5
     2     0.29271934      6
    ------------------------

  ==> Number of Electrons in GAS <==

    GAS  MAX  MIN
    -------------
      1    2    0
      2   10    0
    -------------

  ==> Possible Electron Occupations in GAS <==

    Config.  1_A  1_B  2_A  2_B
    ---------------------------
         1     1    1    4    4
         2     1    0    4    5
         3     0    1    5    4
         4     0    0    5    5
    ---------------------------
    n_A/B: # of alpha/beta electrons in GASn

  ==> Building GAS Determinants <==

    Config.  #Determinants     Time/s
    ---------------------------------
         1              65  5.100e-05
         2              27  3.410e-05
         3              27  3.050e-05
         4              14  2.500e-05
    ---------------------------------
    Total:             133  1.995e-04
    ---------------------------------
  Number of determinants (GAS): 133

  ==> Diagonalizing Hamiltonian Singlet (Ms = 0) A1 <==

  Reading wave function from disk as initial guess: Success!

  Davidson-Liu solver algorithm using SigmaVectorFull sigma algorithm

  Performing diagonalization of the H matrix
  Found 70 roots with 2S+1 = 1 *
  Found 56 roots with 2S+1 = 3
  Found 7 roots with 2S+1 = 5

  Done diagonalizing Hamiltonian, 3.619e-03 seconds.

  ==> Computing 1 Coupling Lists <==

        α          1.108e-04 seconds
        β          1.062e-04 seconds
  Time spent building 1-rdm: 5.480e-05 seconds

  ==> CI Vectors & Occupation Number for Singlet (Ms = 0) A1 <==

  Important determinants with coefficients |C| >= 5.000e-02

  ---- Root No. 0 ----

       A1 B1 B2    Coefficients
    ---------------------------
     2220  2 20   -0.9568998209
     22ba  2 20   -0.1254688905
     22ab  2 20   -0.1254688905
     2220  2 ba    0.1118009989
     2220  2 ab    0.1118009989
     2220  2 02    0.0745898457
     2202  2 20    0.0520713597
    ---------------------------

    Occupation Numbers:
        1A1   1.99999417    1B1   1.99864267    2A1   1.99033113    3A1   1.94992133
        1B2   1.94970969    4A1   0.05987772    2B2   0.05152330

    Total Energy:  -76.004816122328180

  ==> Permanent Dipole Moments [e a0] for Singlet (Ms = 0) A1 <==

       State           DM_X           DM_Y           DM_Z           |DM|
    --------------------------------------------------------------------
         0A1     0.00000000     0.00000000     0.39424967     0.39424967
    --------------------------------------------------------------------

  ==> General Determinant-Based CI Solver <==

  Number of active orbitals: 7
  Number of active alpha electrons: 5
  Number of active beta electrons: 5

  ==> GAS Orbital Energies from SCF <==

    GAS        Energy  Index
    ------------------------
     1   -20.56899957      0
     2    -1.32060927      1
     2    -0.56393045      2
     2     0.20246590      3
     2    -0.49500394      4
     2    -0.67872419      5
     2     0.29271934      6
    ------------------------

  ==> Number of Electrons in GAS <==

    GAS  MAX  MIN
    -------------
      1    1    0
      2   10    0
    -------------

  ==> Possible Electron Occupations in GAS <==

    Config.  1_A  1_B  2_A  2_B
    ---------------------------
         1     1    0    4    5
         2     0    1    5    4
         3     0    0    5    5
    ---------------------------
    n_A/B: # of alpha/beta electrons in GASn

  ==> Building GAS Determinants <==

    Config.  #Determinants     Time/s
    ---------------------------------
         1              17  4.710e-05
         2              17  3.210e-05
         3               6  2.410e-05
    ---------------------------------
    Total:              40  1.507e-04
    ---------------------------------
  Number of determinants (GAS): 40

  ==> Diagonalizing Hamiltonian Singlet (Ms = 0) B1 <==

  Reading wave function from disk as initial guess: Success!

  Davidson-Liu solver algorithm using SigmaVectorFull sigma algorithm

  Performing diagonalization of the H matrix
  Found 16 roots with 2S+1 = 1 *
  Found 20 roots with 2S+1 = 3
  Found 4 roots with 2S+1 = 5

  Done diagonalizing Hamiltonian, 6.564e-04 seconds.

  ==> Computing 1 Coupling Lists <==

        α          4.190e-05 seconds
        β          4.220e-05 seconds
  Time spent building 1-rdm: 1.920e-05 seconds

  ==> CI Vectors & Occupation Number for Singlet (Ms = 0) B1 <==

  Important determinants with coefficients |C| >= 5.000e-02

  ---- Root No. 0 ----

       A1 B1 B2    Coefficients
    ---------------------------
     a222  b 20    0.5507183092
     b222  a 20    0.5507183092
     a220  b 22    0.3233474737
     b220  a 22    0.3233474737
     a222  b ba    0.1917567946
     b222  a ab    0.1917567946
     b222  a ba    0.1834958320
     a222  b ab    0.1834958320
     a2ba  b 22   -0.0848958192
     b2ab  a 22   -0.0848958192
     a2ab  b 22   -0.0820164189
     b2ba  a 22   -0.0820164189
     ba2b  a 22   -0.0509043105
     ab2a  b 22   -0.0509043105
     aa2b  b 22   -0.0504379037
     bb2a  a 22   -0.0504379037
    ---------------------------

    Occupation Numbers:
        2A1   1.98914880    3A1   1.96980312    1B2   1.85162456    4A1   1.54361845
        1B1   1.00000000    1A1   0.99998696    2B2   0.64581811

    Total Energy:  -55.728680236311114

  ==> Permanent Dipole Moments [e a0] for Singlet (Ms = 0) B1 <==

       State           DM_X           DM_Y           DM_Z           |DM|
    --------------------------------------------------------------------
         0B1     0.00000000    -0.00000000    -0.91137493     0.91137493
    --------------------------------------------------------------------

  ==> Energy Summary <==

    Multi.(2ms)  Irrep.  No.               Energy      <S^2>
    --------------------------------------------------------
       1  (  0)    A1     0      -76.004816122328       n/a
    --------------------------------------------------------
       1  (  0)    B1     0      -55.728680236311       n/a
    --------------------------------------------------------

  ==> Computing 2 Coupling Lists <==

        αα         2.209e-04 seconds
        ββ         1.785e-04 seconds
        αβ         4.416e-04 seconds
  Time spent building 2-rdm: 1.100e-04 seconds

  ==> Computing 2 Coupling Lists <==

        αα         8.540e-05 seconds
        ββ         6.950e-05 seconds
        αβ         1.605e-04 seconds
  Time spent building 2-rdm: 3.130e-05 seconds

  ==> Optimizing Orbitals for Current RDMs <==

  L-BFGS Iter:  1; fx =  -65.866748852413124; g_norm = 8.811296e-04; step = 1.000e+00
  L-BFGS Iter:  2; fx =  -65.866748976286360; g_norm = 8.811296e-04; step = 1.000e+00

  ==> MCSCF Macro Iter. 4 <==

             Energy CI (  Delta E  )         Energy Opt. (  Delta E  )  E_OPT - E_CI   Orbital RMS  Micro  DIIS
      -65.866748179320 (-4.3878e-05)    -65.866748976286 (-4.2491e-06)   -7.9697e-07    8.2146e-04    2/N   S/E

  ==> Summary of Active Space Solver Input <==

    Irrep.  Multi.(2ms)      N
    --------------------------
       A1      1  (  0)      1
       B1      1  (  0)      1
    --------------------------
    N: number of roots
    ms: spin z component
    Total number of roots:   2
    --------------------------


  ==> General Determinant-Based CI Solver <==

  Number of active orbitals: 7
  Number of active alpha electrons: 5
  Number of active beta electrons: 5

  ==> GAS Orbital Energies from SCF <==

    GAS        Energy  Index
    ------------------------
     1   -20.56899957      0
     2    -1.32060927      1
     2    -0.56393045      2
     2     0.20246590      3
     2    -0.49500394      4
     2    -0.67872419      5
     2     0.29271934      6
    ------------------------

  ==> Number of Electrons in GAS <==

    GAS  MAX  MIN
    -------------
      1    2    0
      2   10    0
    -------------

  ==> Possible Electron Occupations in GAS <==

    Config.  1_A  1_B  2_A  2_B
    ---------------------------
         1     1    1    4    4
         2     1    0    4    5
         3     0    1    5    4
         4     0    0    5    5
    ---------------------------
    n_A/B: # of alpha/beta electrons in GASn

  ==> Building GAS Determinants <==

    Config.  #Determinants     Time/s
    ---------------------------------
         1              65  5.550e-05
         2              27  3.390e-05
         3              27  3.050e-05
         4              14  2.470e-05
    ---------------------------------
    Total:             133  2.054e-04
    ---------------------------------
  Number of determinants (GAS): 133

  ==> Diagonalizing Hamiltonian Singlet (Ms = 0) A1 <==

  Reading wave function from disk as initial guess: Success!

  Davidson-Liu solver algorithm using SigmaVectorFull sigma algorithm

  Performing diagonalization of the H matrix
  Found 70 roots with 2S+1 = 1 *
  Found 56 roots with 2S+1 = 3
  Found 7 roots with 2S+1 = 5

  Done diagonalizing Hamiltonian, 3.361e-03 seconds.

  ==> Computing 1 Coupling Lists <==

        α          1.140e-04 seconds
        β          1.059e-04 seconds
  Time spent building 1-rdm: 5.530e-05 seconds

  ==> CI Vectors & Occupation Number for Singlet (Ms = 0) A1 <==

  Important determinants with coefficients |C| >= 5.000e-02

  ---- Root No. 0 ----

       A1 B1 B2    Coefficients
    ---------------------------
     2220  2 20    0.9568157801
     22ba  2 20    0.1258103072
     22ab  2 20    0.1258103072
     2220  2 ba   -0.1117759850
     2220  2 ab   -0.1117759850
     2220  2 02   -0.0745612616
     2202  2 20   -0.0520967666
    ---------------------------

    Occupation Numbers:
        1A1   1.99999416    1B1   1.99864294    2A1   1.99034017    1B2   1.94972580
        3A1   1.94972499    4A1   0.06005259    2B2   0.05151934

    Total Energy:  -76.004744847643693

  ==> Permanent Dipole Moments [e a0] for Singlet (Ms = 0) A1 <==

       State           DM_X           DM_Y           DM_Z           |DM|
    --------------------------------------------------------------------
         0A1     0.00000000     0.00000000     0.39349005     0.39349005
    --------------------------------------------------------------------

  ==> General Determinant-Based CI Solver <==

  Number of active orbitals: 7
  Number of active alpha electrons: 5
  Number of active beta electrons: 5

  ==> GAS Orbital Energies from SCF <==

    GAS        Energy  Index
    ------------------------
     1   -20.56899957      0
     2    -1.32060927      1
     2    -0.56393045      2
     2     0.20246590      3
     2    -0.49500394      4
     2    -0.67872419      5
     2     0.29271934      6
    ------------------------

  ==> Number of Electrons in GAS <==

    GAS  MAX  MIN
    -------------
      1    1    0
      2   10    0
    -------------

  ==> Possible Electron Occupations in GAS <==

    Config.  1_A  1_B  2_A  2_B
    ---------------------------
         1     1    0    4    5
         2     0    1    5    4
         3     0    0    5    5
    ---------------------------
    n_A/B: # of alpha/beta electrons in GASn

  ==> Building GAS Determinants <==

    Config.  #Determinants     Time/s
    ---------------------------------
         1              17  4.530e-05
         2              17  3.200e-05
         3               6  2.400e-05
    ---------------------------------
    Total:              40  1.494e-04
    ---------------------------------
  Number of determinants (GAS): 40

  ==> Diagonalizing Hamiltonian Singlet (Ms = 0) B1 <==

  Reading wave function from disk as initial guess: Success!

  Davidson-Liu solver algorithm using SigmaVectorFull sigma algorithm

  Performing diagonalization of the H matrix
  Found 16 roots with 2S+1 = 1 *
  Found 20 roots with 2S+1 = 3
  Found 4 roots with 2S+1 = 5

  Done diagonalizing Hamiltonian, 6.504e-04 seconds.

  ==> Computing 1 Coupling Lists <==

        α          4.230e-05 seconds
        β          4.190e-05 seconds
  Time spent building 1-rdm: 1.960e-05 seconds

  ==> CI Vectors & Occupation Number for Singlet (Ms = 0) B1 <==

  Important determinants with coefficients |C| >= 5.000e-02

  ---- Root No. 0 ----

       A1 B1 B2    Coefficients
    ---------------------------
     a222  b 20    0.5508877169
     b222  a 20    0.5508877169
     a220  b 22    0.3231046105
     b220  a 22    0.3231046105
     a222  b ba    0.1917569381
     b222  a ab    0.1917569381
     b222  a ba    0.1834917824
     a222  b ab    0.1834917824
     a2ba  b 22   -0.0848595602
     b2ab  a 22   -0.0848595602
     a2ab  b 22   -0.0819761266
     b2ba  a 22   -0.0819761266
     ba2b  a 22   -0.0508560999
     ab2a  b 22   -0.0508560999
     aa2b  b 22   -0.0503927859
     bb2a  a 22   -0.0503927859
    ---------------------------

    Occupation Numbers:
        2A1   1.98916842    3A1   1.96982864    1B2   1.85165072    4A1   1.54429088
        1B1   1.00000000    1A1   0.99998699    2B2   0.64507435

    Total Energy:  -55.728753300638623

  ==> Permanent Dipole Moments [e a0] for Singlet (Ms = 0) B1 <==

       State           DM_X           DM_Y           DM_Z           |DM|
    --------------------------------------------------------------------
         0B1     0.00000000    -0.00000000    -0.91177447     0.91177447
    --------------------------------------------------------------------

  ==> Energy Summary <==

    Multi.(2ms)  Irrep.  No.               Energy      <S^2>
    --------------------------------------------------------
       1  (  0)    A1     0      -76.004744847644       n/a
    --------------------------------------------------------
       1  (  0)    B1     0      -55.728753300639       n/a
    --------------------------------------------------------

  ==> Computing 2 Coupling Lists <==

        αα         2.095e-04 seconds
        ββ         1.994e-04 seconds
        αβ         5.261e-04 seconds
  Time spent building 2-rdm: 1.150e-04 seconds

  ==> Computing 2 Coupling Lists <==

        αα         7.500e-05 seconds
        ββ         7.440e-05 seconds
        αβ         1.696e-04 seconds
  Time spent building 2-rdm: 3.290e-05 seconds

  ==> Optimizing Orbitals for Current RDMs <==

  L-BFGS Iter:  1; fx =  -65.866749077682897; g_norm = 4.924378e-05; step = 1.000e+00
  L-BFGS Iter:  2; fx =  -65.866749077964926; g_norm = 4.924378e-05; step = 1.000e+00

  ==> MCSCF Macro Iter. 5 <==

             Energy CI (  Delta E  )         Energy Opt. (  Delta E  )  E_OPT - E_CI   Orbital RMS  Micro  DIIS
      -65.866749074141 (-8.9482e-07)    -65.866749077965 (-1.0168e-07)   -3.8238e-09    1.3892e-04    2/N   S/E

  ==> Summary of Active Space Solver Input <==

    Irrep.  Multi.(2ms)      N
    --------------------------
       A1      1  (  0)      1
       B1      1  (  0)      1
    --------------------------
    N: number of roots
    ms: spin z component
    Total number of roots:   2
    --------------------------


  ==> General Determinant-Based CI Solver <==

  Number of active orbitals: 7
  Number of active alpha electrons: 5
  Number of active beta electrons: 5

  ==> GAS Orbital Energies from SCF <==

    GAS        Energy  Index
    ------------------------
     1   -20.56899957      0
     2    -1.32060927      1
     2    -0.56393045      2
     2     0.20246590      3
     2    -0.49500394      4
     2    -0.67872419      5
     2     0.29271934      6
    ------------------------

  ==> Number of Electrons in GAS <==

    GAS  MAX  MIN
    -------------
      1    2    0
      2   10    0
    -------------

  ==> Possible Electron Occupations in GAS <==

    Config.  1_A  1_B  2_A  2_B
    ---------------------------
         1     1    1    4    4
         2     1    0    4    5
         3     0    1    5    4
         4     0    0    5    5
    ---------------------------
    n_A/B: # of alpha/beta electrons in GASn

  ==> Building GAS Determinants <==

    Config.  #Determinants     Time/s
    ---------------------------------
         1              65  5.110e-05
         2              27  3.390e-05
         3              27  3.090e-05
         4              14  2.460e-05
    ---------------------------------
    Total:             133  1.999e-04
    ---------------------------------
  Number of determinants (GAS): 133

  ==> Diagonalizing Hamiltonian Singlet (Ms = 0) A1 <==

  Reading wave function from disk as initial guess: Success!

  Davidson-Liu solver algorithm using SigmaVectorFull sigma algorithm

  Performing diagonalization of the H matrix
  Found 70 roots with 2S+1 = 1 *
  Found 56 roots with 2S+1 = 3
  Found 7 roots with 2S+1 = 5

  Done diagonalizing Hamiltonian, 3.312e-03 seconds.

  ==> Computing 1 Coupling Lists <==

        α          1.116e-04 seconds
        β          1.046e-04 seconds
  Time spent building 1-rdm: 5.540e-05 seconds

  ==> CI Vectors & Occupation Number for Singlet (Ms = 0) A1 <==

  Important determinants with coefficients |C| >= 5.000e-02

  ---- Root No. 0 ----

       A1 B1 B2    Coefficients
    ---------------------------
     2220  2 20    0.9568148631
     22ba  2 20    0.1258168555
     22ab  2 20    0.1258168555
     2220  2 ba   -0.1117731330
     2220  2 ab   -0.1117731330
     2220  2 02   -0.0745596659
     2202  2 20   -0.0520970478
    ---------------------------

    Occupation Numbers:
        1A1   1.99999416    1B1   1.99864286    2A1   1.99034014    1B2   1.94972767
        3A1   1.94972161    4A1   0.06005592    2B2   0.05151763

    Total Energy:  -76.004747312598539

  ==> Permanent Dipole Moments [e a0] for Singlet (Ms = 0) A1 <==

       State           DM_X           DM_Y           DM_Z           |DM|
    --------------------------------------------------------------------
         0A1     0.00000000    -0.00000000     0.39348570     0.39348570
    --------------------------------------------------------------------

  ==> General Determinant-Based CI Solver <==

  Number of active orbitals: 7
  Number of active alpha electrons: 5
  Number of active beta electrons: 5

  ==> GAS Orbital Energies from SCF <==

    GAS        Energy  Index
    ------------------------
     1   -20.56899957      0
     2    -1.32060927      1
     2    -0.56393045      2
     2     0.20246590      3
     2    -0.49500394      4
     2    -0.67872419      5
     2     0.29271934      6
    ------------------------

  ==> Number of Electrons in GAS <==

    GAS  MAX  MIN
    -------------
      1    1    0
      2   10    0
    -------------

  ==> Possible Electron Occupations in GAS <==

    Config.  1_A  1_B  2_A  2_B
    ---------------------------
         1     1    0    4    5
         2     0    1    5    4
         3     0    0    5    5
    ---------------------------
    n_A/B: # of alpha/beta electrons in GASn

  ==> Building GAS Determinants <==

    Config.  #Determinants     Time/s
    ---------------------------------
         1              17  5.260e-05
         2              17  3.390e-05
         3               6  2.540e-05
    ---------------------------------
    Total:              40  1.644e-04
    ---------------------------------
  Number of determinants (GAS): 40

  ==> Diagonalizing Hamiltonian Singlet (Ms = 0) B1 <==

  Reading wave function from disk as initial guess: Success!

  Davidson-Liu solver algorithm using SigmaVectorFull sigma algorithm

  Performing diagonalization of the H matrix
  Found 16 roots with 2S+1 = 1 *
  Found 20 roots with 2S+1 = 3
  Found 4 roots with 2S+1 = 5

  Done diagonalizing Hamiltonian, 7.402e-04 seconds.

  ==> Computing 1 Coupling Lists <==

        α          4.550e-05 seconds
        β          4.460e-05 seconds
  Time spent building 1-rdm: 2.070e-05 seconds

  ==> CI Vectors & Occupation Number for Singlet (Ms = 0) B1 <==

  Important determinants with coefficients |C| >= 5.000e-02

  ---- Root No. 0 ----

       A1 B1 B2    Coefficients
    ---------------------------
     a222  b 20    0.5509048092
     b222  a 20    0.5509048092
     a220  b 22    0.3230768651
     b220  a 22    0.3230768651
     a222  b ba    0.1917611351
     b222  a ab    0.1917611351
     b222  a ba    0.1834948883
     a222  b ab    0.1834948883
     a2ba  b 22   -0.0848525856
     b2ab  a 22   -0.0848525856
     a2ab  b 22   -0.0819692718
     b2ba  a 22   -0.0819692718
     ba2b  a 22   -0.0508512204
     ab2a  b 22   -0.0508512204
     aa2b  b 22   -0.0503881524
     bb2a  a 22   -0.0503881524
    ---------------------------

    Occupation Numbers:
        2A1   1.98917043    3A1   1.96983352    1B2   1.85164643    4A1   1.54436914
        1B1   1.00000000    1A1   0.99998699    2B2   0.64499349

    Total Energy:  -55.728750844226205

  ==> Permanent Dipole Moments [e a0] for Singlet (Ms = 0) B1 <==

       State           DM_X           DM_Y           DM_Z           |DM|
    --------------------------------------------------------------------
         0B1     0.00000000    -0.00000000    -0.91175783     0.91175783
    --------------------------------------------------------------------

  ==> Energy Summary <==

    Multi.(2ms)  Irrep.  No.               Energy      <S^2>
    --------------------------------------------------------
       1  (  0)    A1     0      -76.004747312599       n/a
    --------------------------------------------------------
       1  (  0)    B1     0      -55.728750844226       n/a
    --------------------------------------------------------

  ==> Computing 2 Coupling Lists <==

        αα         1.984e-04 seconds
        ββ         1.929e-04 seconds
        αβ         5.083e-04 seconds
  Time spent building 2-rdm: 1.127e-04 seconds

  ==> Computing 2 Coupling Lists <==

        αα         7.430e-05 seconds
        ββ         7.380e-05 seconds
        αβ         1.697e-04 seconds
  Time spent building 2-rdm: 3.500e-05 seconds

  ==> Optimizing Orbitals for Current RDMs <==

  L-BFGS Iter:  1; fx =  -65.866749078555458; g_norm = 1.190460e-05; step = 1.000e+00
  L-BFGS Iter:  2; fx =  -65.866749078584036; g_norm = 1.190460e-05; step = 1.000e+00

  ==> MCSCF Macro Iter. 6 <==

             Energy CI (  Delta E  )         Energy Opt. (  Delta E  )  E_OPT - E_CI   Orbital RMS  Micro  DIIS
      -65.866749078412 (-4.2712e-09)    -65.866749078584 (-6.1911e-10)   -1.7167e-10    6.4785e-06    2/N   S/E

  ==> Summary of Active Space Solver Input <==

    Irrep.  Multi.(2ms)      N
    --------------------------
       A1      1  (  0)      1
       B1      1  (  0)      1
    --------------------------
    N: number of roots
    ms: spin z component
    Total number of roots:   2
    --------------------------


  ==> General Determinant-Based CI Solver <==

  Number of active orbitals: 7
  Number of active alpha electrons: 5
  Number of active beta electrons: 5

  ==> GAS Orbital Energies from SCF <==

    GAS        Energy  Index
    ------------------------
     1   -20.56899957      0
     2    -1.32060927      1
     2    -0.56393045      2
     2     0.20246590      3
     2    -0.49500394      4
     2    -0.67872419      5
     2     0.29271934      6
    ------------------------

  ==> Number of Electrons in GAS <==

    GAS  MAX  MIN
    -------------
      1    2    0
      2   10    0
    -------------

  ==> Possible Electron Occupations in GAS <==

    Config.  1_A  1_B  2_A  2_B
    ---------------------------
         1     1    1    4    4
         2     1    0    4    5
         3     0    1    5    4
         4     0    0    5    5
    ---------------------------
    n_A/B: # of alpha/beta electrons in GASn

  ==> Building GAS Determinants <==

    Config.  #Determinants     Time/s
    ---------------------------------
         1              65  5.530e-05
         2              27  3.530e-05
         3              27  3.240e-05
         4              14  2.630e-05
    ---------------------------------
    Total:             133  2.125e-04
    ---------------------------------
  Number of determinants (GAS): 133

  ==> Diagonalizing Hamiltonian Singlet (Ms = 0) A1 <==

  Reading wave function from disk as initial guess: Success!

  Davidson-Liu solver algorithm using SigmaVectorFull sigma algorithm

  Performing diagonalization of the H matrix
  Found 70 roots with 2S+1 = 1 *
  Found 56 roots with 2S+1 = 3
  Found 7 roots with 2S+1 = 5

  Done diagonalizing Hamiltonian, 3.570e-03 seconds.

  ==> Computing 1 Coupling Lists <==

        α          1.201e-04 seconds
        β          1.145e-04 seconds
  Time spent building 1-rdm: 5.940e-05 seconds

  ==> CI Vectors & Occupation Number for Singlet (Ms = 0) A1 <==

  Important determinants with coefficients |C| >= 5.000e-02

  ---- Root No. 0 ----

       A1 B1 B2    Coefficients
    ---------------------------
     2220  2 20    0.9568156331
     22ba  2 20    0.1258156980
     22ab  2 20    0.1258156980
     2220  2 ba   -0.1117717116
     2220  2 ab   -0.1117717116
     2220  2 02   -0.0745588217
     2202  2 20   -0.0520970112
    ---------------------------

    Occupation Numbers:
        1A1   1.99999416    1B1   1.99864284    2A1   1.99034003    1B2   1.94972876
        3A1   1.94972247    4A1   0.06005520    2B2   0.05151654

    Total Energy:  -76.004748433117754

  ==> Permanent Dipole Moments [e a0] for Singlet (Ms = 0) A1 <==

       State           DM_X           DM_Y           DM_Z           |DM|
    --------------------------------------------------------------------
         0A1     0.00000000    -0.00000000     0.39349861     0.39349861
    --------------------------------------------------------------------

  ==> General Determinant-Based CI Solver <==

  Number of active orbitals: 7
  Number of active alpha electrons: 5
  Number of active beta electrons: 5

  ==> GAS Orbital Energies from SCF <==

    GAS        Energy  Index
    ------------------------
     1   -20.56899957      0
     2    -1.32060927      1
     2    -0.56393045      2
     2     0.20246590      3
     2    -0.49500394      4
     2    -0.67872419      5
     2     0.29271934      6
    ------------------------

  ==> Number of Electrons in GAS <==

    GAS  MAX  MIN
    -------------
      1    1    0
      2   10    0
    -------------

  ==> Possible Electron Occupations in GAS <==

    Config.  1_A  1_B  2_A  2_B
    ---------------------------
         1     1    0    4    5
         2     0    1    5    4
         3     0    0    5    5
    ---------------------------
    n_A/B: # of alpha/beta electrons in GASn

  ==> Building GAS Determinants <==

    Config.  #Determinants     Time/s
    ---------------------------------
         1              17  4.800e-05
         2              17  3.360e-05
         3               6  2.530e-05
    ---------------------------------
    Total:              40  1.577e-04
    ---------------------------------
  Number of determinants (GAS): 40

  ==> Diagonalizing Hamiltonian Singlet (Ms = 0) B1 <==

  Reading wave function from disk as initial guess: Success!

  Davidson-Liu solver algorithm using SigmaVectorFull sigma algorithm

  Performing diagonalization of the H matrix
  Found 16 roots with 2S+1 = 1 *
  Found 20 roots with 2S+1 = 3
  Found 4 roots with 2S+1 = 5

  Done diagonalizing Hamiltonian, 6.944e-04 seconds.

  ==> Computing 1 Coupling Lists <==

        α          4.550e-05 seconds
        β          4.450e-05 seconds
  Time spent building 1-rdm: 2.080e-05 seconds

  ==> CI Vectors & Occupation Number for Singlet (Ms = 0) B1 <==

  Important determinants with coefficients |C| >= 5.000e-02

  ---- Root No. 0 ----

       A1 B1 B2    Coefficients
    ---------------------------
     a222  b 20    0.5509131553
     b222  a 20    0.5509131553
     a220  b 22    0.3230620627
     b220  a 22    0.3230620627
     a222  b ba    0.1917643302
     b222  a ab    0.1917643302
     b222  a ba    0.1834974551
     a222  b ab    0.1834974551
     a2ba  b 22   -0.0848488437
     b2ab  a 22   -0.0848488437
     a2ab  b 22   -0.0819657109
     b2ba  a 22   -0.0819657109
     ba2b  a 22   -0.0508488648
     ab2a  b 22   -0.0508488648
     aa2b  b 22   -0.0503857833
     bb2a  a 22   -0.0503857833
    ---------------------------

    Occupation Numbers:
        2A1   1.98917141    3A1   1.96983606    1B2   1.85164240    4A1   1.54441079
        1B1   1.00000000    1A1   0.99998699    2B2   0.64495235

    Total Energy:  -55.728749724175124

  ==> Permanent Dipole Moments [e a0] for Singlet (Ms = 0) B1 <==

       State           DM_X           DM_Y           DM_Z           |DM|
    --------------------------------------------------------------------
         0B1     0.00000000     0.00000000    -0.91175673     0.91175673
    --------------------------------------------------------------------

  ==> Energy Summary <==

    Multi.(2ms)  Irrep.  No.               Energy      <S^2>
    --------------------------------------------------------
       1  (  0)    A1     0      -76.004748433118       n/a
    --------------------------------------------------------
       1  (  0)    B1     0      -55.728749724175       n/a
    --------------------------------------------------------

  ==> Computing 2 Coupling Lists <==

        αα         2.474e-04 seconds
        ββ         2.557e-04 seconds
        αβ         4.706e-04 seconds
  Time spent building 2-rdm: 1.512e-04 seconds

  ==> Computing 2 Coupling Lists <==

        αα         7.650e-05 seconds
        ββ         7.370e-05 seconds
        αβ         1.694e-04 seconds
  Time spent building 2-rdm: 3.280e-05 seconds

  ==> Optimizing Orbitals for Current RDMs <==

  L-BFGS Iter:  1; fx =  -65.866749078650429; g_norm = 2.218724e-06; step = 1.000e+00
  L-BFGS Iter:  2; fx =  -65.866749078651011; g_norm = 2.218724e-06; step = 1.000e+00

  ==> MCSCF Macro Iter. 7 <==

             Energy CI (  Delta E  )         Energy Opt. (  Delta E  )  E_OPT - E_CI   Orbital RMS  Micro  DIIS
      -65.866749078646 (-2.3407e-10)    -65.866749078651 (-6.6976e-11)   -4.5759e-12    2.2663e-06    2/N   S/E

  ==> Summary of Active Space Solver Input <==

    Irrep.  Multi.(2ms)      N
    --------------------------
       A1      1  (  0)      1
       B1      1  (  0)      1
    --------------------------
    N: number of roots
    ms: spin z component
    Total number of roots:   2
    --------------------------


  ==> General Determinant-Based CI Solver <==

  Number of active orbitals: 7
  Number of active alpha electrons: 5
  Number of active beta electrons: 5

  ==> GAS Orbital Energies from SCF <==

    GAS        Energy  Index
    ------------------------
     1   -20.56899957      0
     2    -1.32060927      1
     2    -0.56393045      2
     2     0.20246590      3
     2    -0.49500394      4
     2    -0.67872419      5
     2     0.29271934      6
    ------------------------

  ==> Number of Electrons in GAS <==

    GAS  MAX  MIN
    -------------
      1    2    0
      2   10    0
    -------------

  ==> Possible Electron Occupations in GAS <==

    Config.  1_A  1_B  2_A  2_B
    ---------------------------
         1     1    1    4    4
         2     1    0    4    5
         3     0    1    5    4
         4     0    0    5    5
    ---------------------------
    n_A/B: # of alpha/beta electrons in GASn

  ==> Building GAS Determinants <==

    Config.  #Determinants     Time/s
    ---------------------------------
         1              65  5.150e-05
         2              27  3.410e-05
         3              27  3.090e-05
         4              14  5.330e-05
    ---------------------------------
    Total:             133  2.524e-04
    ---------------------------------
  Number of determinants (GAS): 133

  ==> Diagonalizing Hamiltonian Singlet (Ms = 0) A1 <==

  Reading wave function from disk as initial guess: Success!

  Davidson-Liu solver algorithm using SigmaVectorFull sigma algorithm

  Performing diagonalization of the H matrix
  Found 70 roots with 2S+1 = 1 *
  Found 56 roots with 2S+1 = 3
  Found 7 roots with 2S+1 = 5

  Done diagonalizing Hamiltonian, 3.680e-03 seconds.

  ==> Computing 1 Coupling Lists <==

        α          1.488e-04 seconds
        β          1.067e-04 seconds
  Time spent building 1-rdm: 5.520e-05 seconds

  ==> CI Vectors & Occupation Number for Singlet (Ms = 0) A1 <==

  Important determinants with coefficients |C| >= 5.000e-02

  ---- Root No. 0 ----

       A1 B1 B2    Coefficients
    ---------------------------
     2220  2 20    0.9568156928
     22ba  2 20    0.1258152113
     22ab  2 20    0.1258152113
     2220  2 ba   -0.1117719400
     2220  2 ab   -0.1117719400
     2220  2 02   -0.0745589443
     2202  2 20   -0.0520969683
    ---------------------------

    Occupation Numbers:
        1A1   1.99999416    1B1   1.99864284    2A1   1.99034002    1B2   1.94972861
        3A1   1.94972272    4A1   0.06005497    2B2   0.05151668

    Total Energy:  -76.004748359054716

  ==> Permanent Dipole Moments [e a0] for Singlet (Ms = 0) A1 <==

       State           DM_X           DM_Y           DM_Z           |DM|
    --------------------------------------------------------------------
         0A1     0.00000000     0.00000000     0.39349870     0.39349870
    --------------------------------------------------------------------

  ==> General Determinant-Based CI Solver <==

  Number of active orbitals: 7
  Number of active alpha electrons: 5
  Number of active beta electrons: 5

  ==> GAS Orbital Energies from SCF <==

    GAS        Energy  Index
    ------------------------
     1   -20.56899957      0
     2    -1.32060927      1
     2    -0.56393045      2
     2     0.20246590      3
     2    -0.49500394      4
     2    -0.67872419      5
     2     0.29271934      6
    ------------------------

  ==> Number of Electrons in GAS <==

    GAS  MAX  MIN
    -------------
      1    1    0
      2   10    0
    -------------

  ==> Possible Electron Occupations in GAS <==

    Config.  1_A  1_B  2_A  2_B
    ---------------------------
         1     1    0    4    5
         2     0    1    5    4
         3     0    0    5    5
    ---------------------------
    n_A/B: # of alpha/beta electrons in GASn

  ==> Building GAS Determinants <==

    Config.  #Determinants     Time/s
    ---------------------------------
         1              17  5.640e-05
         2              17  3.420e-05
         3               6  2.440e-05
    ---------------------------------
    Total:              40  1.646e-04
    ---------------------------------
  Number of determinants (GAS): 40

  ==> Diagonalizing Hamiltonian Singlet (Ms = 0) B1 <==

  Reading wave function from disk as initial guess: Success!

  Davidson-Liu solver algorithm using SigmaVectorFull sigma algorithm

  Performing diagonalization of the H matrix
  Found 16 roots with 2S+1 = 1 *
  Found 20 roots with 2S+1 = 3
  Found 4 roots with 2S+1 = 5

  Done diagonalizing Hamiltonian, 6.916e-04 seconds.

  ==> Computing 1 Coupling Lists <==

        α          4.250e-05 seconds
        β          4.200e-05 seconds
  Time spent building 1-rdm: 2.000e-05 seconds

  ==> CI Vectors & Occupation Number for Singlet (Ms = 0) B1 <==

  Important determinants with coefficients |C| >= 5.000e-02

  ---- Root No. 0 ----

       A1 B1 B2    Coefficients
    ---------------------------
     a222  b 20    0.5509122318
     b222  a 20    0.5509122318
     a220  b 22    0.3230635816
     b220  a 22    0.3230635816
     a222  b ba    0.1917640821
     b222  a ab    0.1917640821
     b222  a ba    0.1834972712
     a222  b ab    0.1834972712
     a2ba  b 22   -0.0848492173
     b2ab  a 22   -0.0848492173
     a2ab  b 22   -0.0819660801
     b2ba  a 22   -0.0819660801
     ba2b  a 22   -0.0508491420
     ab2a  b 22   -0.0508491420
     aa2b  b 22   -0.0503860499
     bb2a  a 22   -0.0503860499
    ---------------------------

    Occupation Numbers:
        2A1   1.98917130    3A1   1.96983580    1B2   1.85164266    4A1   1.54440651
        1B1   1.00000000    1A1   0.99998699    2B2   0.64495675

    Total Energy:  -55.728749798249105

  ==> Permanent Dipole Moments [e a0] for Singlet (Ms = 0) B1 <==

       State           DM_X           DM_Y           DM_Z           |DM|
    --------------------------------------------------------------------
         0B1     0.00000000     0.00000000    -0.91175625     0.91175625
    --------------------------------------------------------------------

  ==> Energy Summary <==

    Multi.(2ms)  Irrep.  No.               Energy      <S^2>
    --------------------------------------------------------
       1  (  0)    A1     0      -76.004748359055       n/a
    --------------------------------------------------------
       1  (  0)    B1     0      -55.728749798249       n/a
    --------------------------------------------------------

  ==> Computing 2 Coupling Lists <==

        αα         1.871e-04 seconds
        ββ         1.789e-04 seconds
        αβ         4.766e-04 seconds
  Time spent building 2-rdm: 1.065e-04 seconds

  ==> Computing 2 Coupling Lists <==

        αα         7.070e-05 seconds
        ββ         6.890e-05 seconds
        αβ         1.599e-04 seconds
  Time spent building 2-rdm: 3.130e-05 seconds

  ==> Optimizing Orbitals for Current RDMs <==

  L-BFGS Iter:  1; fx =  -65.866749078651964; g_norm = 6.026598e-08; step = 1.000e+00
  L-BFGS Iter:  2; fx =  -65.866749078651935; g_norm = 6.026598e-08; step = 1.000e+00

  ==> MCSCF Macro Iter. 8 <==

             Energy CI (  Delta E  )         Energy Opt. (  Delta E  )  E_OPT - E_CI   Orbital RMS  Micro  DIIS
      -65.866749078652 (-5.4712e-12)    -65.866749078652 (-9.2371e-13)   -2.8422e-14    3.6489e-07    2/N   S/E

  ==> Summary of Active Space Solver Input <==

    Irrep.  Multi.(2ms)      N
    --------------------------
       A1      1  (  0)      1
       B1      1  (  0)      1
    --------------------------
    N: number of roots
    ms: spin z component
    Total number of roots:   2
    --------------------------


  ==> General Determinant-Based CI Solver <==

  Number of active orbitals: 7
  Number of active alpha electrons: 5
  Number of active beta electrons: 5

  ==> GAS Orbital Energies from SCF <==

    GAS        Energy  Index
    ------------------------
     1   -20.56899957      0
     2    -1.32060927      1
     2    -0.56393045      2
     2     0.20246590      3
     2    -0.49500394      4
     2    -0.67872419      5
     2     0.29271934      6
    ------------------------

  ==> Number of Electrons in GAS <==

    GAS  MAX  MIN
    -------------
      1    2    0
      2   10    0
    -------------

  ==> Possible Electron Occupations in GAS <==

    Config.  1_A  1_B  2_A  2_B
    ---------------------------
         1     1    1    4    4
         2     1    0    4    5
         3     0    1    5    4
         4     0    0    5    5
    ---------------------------
    n_A/B: # of alpha/beta electrons in GASn

  ==> Building GAS Determinants <==

    Config.  #Determinants     Time/s
    ---------------------------------
         1              65  5.850e-05
         2              27  3.650e-05
         3              27  3.440e-05
         4              14  2.720e-05
    ---------------------------------
    Total:             133  2.348e-04
    ---------------------------------
  Number of determinants (GAS): 133

  ==> Diagonalizing Hamiltonian Singlet (Ms = 0) A1 <==

  Reading wave function from disk as initial guess: Success!

  Davidson-Liu solver algorithm using SigmaVectorFull sigma algorithm

  Performing diagonalization of the H matrix
  Found 70 roots with 2S+1 = 1 *
  Found 56 roots with 2S+1 = 3
  Found 7 roots with 2S+1 = 5

  Done diagonalizing Hamiltonian, 3.560e-03 seconds.

  ==> Computing 1 Coupling Lists <==

        α          1.171e-04 seconds
        β          1.063e-04 seconds
  Time spent building 1-rdm: 5.550e-05 seconds

  ==> CI Vectors & Occupation Number for Singlet (Ms = 0) A1 <==

  Important determinants with coefficients |C| >= 5.000e-02

  ---- Root No. 0 ----

       A1 B1 B2    Coefficients
    ---------------------------
     2220  2 20    0.9568157008
     22ba  2 20    0.1258151848
     22ab  2 20    0.1258151848
     2220  2 ba   -0.1117719352
     2220  2 ab   -0.1117719352
     2220  2 02   -0.0745589461
     2202  2 20   -0.0520969656
    ---------------------------

    Occupation Numbers:
        1A1   1.99999416    1B1   1.99864284    2A1   1.99034002    1B2   1.94972861
        3A1   1.94972273    4A1   0.06005495    2B2   0.05151668

    Total Energy:  -76.004748370837973

  ==> Permanent Dipole Moments [e a0] for Singlet (Ms = 0) A1 <==

[...]
    Norm of T2AB vector: (nonzero elements: 8048)                 1.074490329980124.
    --------------------------------------------------------------------------------
    Largest T2 amplitudes for spin case BB:
       _   _   _   _              _   _   _   _              _   _   _   _           
       i   j   a   b              i   j   a   b              i   j   a   b           
    --------------------------------------------------------------------------------
    [  0  14   0  15]-0.272415 [  0   2   0   4] 0.187811 [  0  19   0  21]-0.133214 
    [  0   3   0   4]-0.127172 [  0  18   0  21]-0.121116 [  0  19   0  20]-0.106128 
    [  2  14   2  15]-0.103041 [ 14  18  15  18]-0.094653 [  1  14   1  15]-0.091952 
    [  0   3   0   6] 0.090548 [  0   2   0   5] 0.077687 [  2  14   4  14] 0.070546 
    [  0   1   0   5] 0.069487 [  1   3   1   4]-0.065590 [  1  19   1  20]-0.064727 
    --------------------------------------------------------------------------------
    Norm of T2BB vector: (nonzero elements: 6452)                 1.203372340247748.
    --------------------------------------------------------------------------------

  ==> Possible Intruders <==

    T1 amplitudes larger than 0.1000 for spin case A:
        Amplitude         Value                  Denominator              
    ----------------------------------------------------------------------
    [ 19      20    ]   -0.10032453 (  0.260104 -   0.897619 =  -0.637514)
    [ 19      21    ]   -0.10007982 (  0.260104 -   1.069067 =  -0.808963)
    ----------------------------------------------------------------------
    T1 amplitudes larger than 0.1000 for spin case B:
        Amplitude         Value                  Denominator              
    ----------------------------------------------------------------------
    [ 19      20    ]   -0.10032453 (  0.260104 -   0.897619 =  -0.637514)
    [ 19      21    ]   -0.10007982 (  0.260104 -   1.069067 =  -0.808963)
    ----------------------------------------------------------------------
    T2 amplitudes larger than 0.1000 for spin case AA:
        Amplitude         Value                               Denominator                           
    ------------------------------------------------------------------------------------------------
    [  0  14   0  15]   -0.27241462 (-21.045251 +  -0.564517 - -21.045251 -   0.975299 =  -1.539816)
    [  0   2   0   4]    0.18781145 (-21.045251 +  -0.773411 - -21.045251 -   0.867946 =  -1.641357)
    [  0  19   0  21]   -0.13321417 (-21.045251 +   0.260104 - -21.045251 -   1.069067 =  -0.808963)
    [  0   3   0   4]   -0.12717208 (-21.045251 +   0.077538 - -21.045251 -   0.867946 =  -0.790408)
    [  0  18   0  21]   -0.12111613 (-21.045251 +  -0.843668 - -21.045251 -   1.069067 =  -1.912735)
    [  0  19   0  20]   -0.10612824 (-21.045251 +   0.260104 - -21.045251 -   0.897619 =  -0.637514)
    [  2  14   2  15]   -0.10304075 ( -0.773411 +  -0.564517 -  -0.773411 -   0.975299 =  -1.539816)
    ------------------------------------------------------------------------------------------------
    T2 amplitudes larger than 0.1000 for spin case AB:
        Amplitude         Value                               Denominator                           
    ------------------------------------------------------------------------------------------------
    [  0  14   0  15]   -0.29498023 (-21.045251 +  -0.564517 - -21.045251 -   0.975299 =  -1.539816)
    [  0   2   0   4]    0.20428819 (-21.045251 +  -0.773411 - -21.045251 -   0.867946 =  -1.641357)
    [  0  19   0  21]   -0.14561788 (-21.045251 +   0.260104 - -21.045251 -   1.069067 =  -0.808963)
    [  0   3   0   4]   -0.13551094 (-21.045251 +   0.077538 - -21.045251 -   0.867946 =  -0.790408)
    [  0  18   0  21]   -0.13296140 (-21.045251 +  -0.843668 - -21.045251 -   1.069067 =  -1.912735)
    [ 14  14  14  15]   -0.12756014 ( -0.564517 +  -0.564517 -  -0.564517 -   0.975299 =  -1.539816)
    [  1  14   1  15]   -0.11841462 ( -1.521169 +  -0.564517 -  -1.521169 -   0.975299 =  -1.539816)
    [  2  14   2  15]   -0.11195365 ( -0.773411 +  -0.564517 -  -0.773411 -   0.975299 =  -1.539816)
    [  0  19   0  20]   -0.11097796 (-21.045251 +   0.260104 - -21.045251 -   0.897619 =  -0.637514)
    [ 14  18  15  18]   -0.10065158 ( -0.564517 +  -0.843668 -   0.975299 -  -0.843668 =  -1.539816)
    ------------------------------------------------------------------------------------------------
    T2 amplitudes larger than 0.1000 for spin case BB:
        Amplitude         Value                               Denominator                           
    ------------------------------------------------------------------------------------------------
    [  0  14   0  15]   -0.27241462 (-21.045251 +  -0.564517 - -21.045251 -   0.975299 =  -1.539816)
    [  0   2   0   4]    0.18781145 (-21.045251 +  -0.773411 - -21.045251 -   0.867946 =  -1.641357)
    [  0  19   0  21]   -0.13321417 (-21.045251 +   0.260104 - -21.045251 -   1.069067 =  -0.808963)
    [  0   3   0   4]   -0.12717208 (-21.045251 +   0.077538 - -21.045251 -   0.867946 =  -0.790408)
    [  0  18   0  21]   -0.12111613 (-21.045251 +  -0.843668 - -21.045251 -   1.069067 =  -1.912735)
    [  0  19   0  20]   -0.10612824 (-21.045251 +   0.260104 - -21.045251 -   0.897619 =  -0.637514)
    [  2  14   2  15]   -0.10304075 ( -0.773411 +  -0.564517 -  -0.773411 -   0.975299 =  -1.539816)
    ------------------------------------------------------------------------------------------------

  ==> DSRG-MRPT2 Energy Summary <==

    E0 (reference)                 =    -65.866749078652006
    <[F, T1]>                      =     -0.049213305828911
    <[F, T2]>                      =      0.050673723848227
    <[V, T1]>                      =      0.041732657468441
    <[V, T2]> (C_2)^4              =     -0.501486050767575
    <[V, T2]> C_4 (C_2)^2 HH       =      0.000000000000000
    <[V, T2]> C_4 (C_2)^2 PP       =      0.019995361883547
    <[V, T2]> C_4 (C_2)^2 PH       =      0.206619355039421
    <[V, T2]> C_6 C_2              =      0.023708900793627
    <[V, T2]>                      =     -0.251162433050980
    DSRG-MRPT2 correlation energy  =     -0.207969357563223
    DSRG-MRPT2 total energy        =    -66.074718436215235
    max(T1)                        =      0.100324532962570
    max(T2)                        =      0.294980226409227
    ||T1||                         =      0.265976953185676
    ||T2||                         =      2.741227435918054

  Energy took      0.088 s


  ==> De-Normal-Order DSRG Transformed Hamiltonian <==

    Computing the scalar term                ... Done. Timing    0.000 s
    Computing the 1-body term                ... Done. Timing    0.000 s

  ==> Rotate DSRG Transformed Hamiltonian back to Original Basis <==

    Rotating 1-body term to original basis   ... Done. Timing    0.000 s
    Rotating 2-body term to original basis   ... Done. Timing    0.002 s

--------------------------------------------------------------------------------
               Selected Configuration Interaction Excited States
  written by Jeffrey B. Schriber, Tianyuan Zhang, and Francesco A. Evangelista
--------------------------------------------------------------------------------

  ==> Calculation Information <==

  -----------------------------------------------------------------
    Multiplicity                             1    
    Symmetry                                 0    
    Number of roots                          1    
    Ms                                       0
    Excited Algorithm                        NONE
  -----------------------------------------------------------------
  Using 1 thread(s)
  Computing wavefunction for root 0

        ---------------------------------------------------------------
                      Adaptive Configuration Interaction
          written by Jeffrey B. Schriber and Francesco A. Evangelista
        ---------------------------------------------------------------

  ==> Reference Information <==

  There are 0 frozen orbitals.
  There are 7 active orbitals.

  ==> Calculation Information <==

  -----------------------------------------------------------------
    Multiplicity                             1    
    Symmetry                                 0    
    Number of roots                          1    
    Root used for properties                 0    
    Roots used for averaging                 1    
    Root averaging offset                    0    
    Sigma (Eh)                               0.00e+00
    Gamma (Eh^(-1))                          1.00e+00
    Convergence threshold                    1.00e-09
    Ms                                       0
    Diagonalization algorithm                SPARSE
    Excited Algorithm                        NONE
    Project out spin contaminants            True
    Enforce spin completeness of basis       True
    Enforce complete aimed selection         True
    Multiroot averaging                      Average
  -----------------------------------------------------------------
  Number of active orbitals: 7
  Number of active alpha electrons: 5
  Number of active beta electrons: 5

  ==> GAS Orbital Energies from SCF <==

    GAS        Energy  Index
    ------------------------
     1   -20.56899957      0
     2    -1.32060927      1
     2    -0.56393045      2
     2     0.20246590      3
     2    -0.49500394      4
     2    -0.67872419      5
     2     0.29271934      6
    ------------------------

  ==> Number of Electrons in GAS <==

    GAS  MAX  MIN
    -------------
      1    2    0
      2   10    0
    -------------

  ==> Possible Electron Occupations in GAS <==

    Config.  1_A  1_B  2_A  2_B
    ---------------------------
         1     1    1    4    4
         2     1    0    4    5
         3     0    1    5    4
         4     0    0    5    5
    ---------------------------
    n_A/B: # of alpha/beta electrons in GASn

  ==> Building GAS Determinants <==

    Config.  #Determinants     Time/s
    ---------------------------------
         1              65  5.490e-05
         2              27  3.340e-05
         3              27  6.205e-04
         4              14  3.312e-04
    ---------------------------------
    Total:             133  1.121e-03
    ---------------------------------

  ==> Diagonalizing the Hamiltonian in the P + Q space <==

  Number of reference roots: 1

  ==> Computing 1 Coupling Lists <==

        α          1.150e-04 seconds
        β          1.081e-04 seconds

  ==> Computing 2 Coupling Lists <==

        αα         1.846e-04 seconds
        ββ         2.167e-04 seconds
        αβ         4.492e-04 seconds

  Davidson-Liu solver algorithm using SigmaVectorSparseList sigma algorithm

  Performing diagonalization of the H matrix
  Found 70 roots with 2S+1 = 1 *
  Found 56 roots with 2S+1 = 3
  Found 7 roots with 2S+1 = 5
  Total time spent diagonalizing H:   0.004473 s

    PQ-space CI Energy Root   0        = -76.189339598227 Eh =   0.0000 eV, S^2 = 0.000000
    PQ-space CI Energy + EPT2 Root   0 = -76.189339598227 Eh =   0.0000 eV


  ==> GAS Contribution Analysis <==

  Root 0:
    Config.  1_A  1_B  2_A  2_B  Contribution
    -----------------------------------------
         1     1    1    4    4  99.99953515%
         2     1    0    4    5   0.00018080%
         3     0    1    5    4   0.00018080%
         4     0    0    5    5   0.00010325%
    -----------------------------------------
               GAS1      GAS2    Contribution
    -----------------------------------------
                  0        10     0.00010325%
                  1         9     0.00036160%
                  2         8    99.99953515%
    -----------------------------------------

  ==> ACI Natural Orbitals <==

        1A1     1.999997      1B1     1.998138      2A1     1.997938  
        3A1     1.979375      1B2     1.978838      4A1     0.023075  
        2B2     0.022638  

  ==> Excited state solver summary <==

  Iterations required:                         0
  Dimension of optimized determinant space:    133

  * Selected-CI Energy Root   0        = -76.189339598227 Eh =   0.0000 eV
  * Selected-CI Energy Root   0 + EPT2 = -76.189339598227 Eh =   0.0000 eV

  ==> Wavefunction Information <==

  Most important contributions to root   0:
    0  -0.943198 0.889622267          44 |2220220>
    1   0.161802 0.026179876          43 |22202+->
    2   0.161802 0.026179876          38 |22202-+>
    3  -0.132923 0.017668467          42 |22+-220>
    4  -0.132923 0.017668467          32 |22-+220>
    5  -0.069098 0.004774572          40 |2+2-220>
    6  -0.069098 0.004774572          20 |2-2+220>
    7   0.047706 0.002275889          37 |2220202>
    8   0.038881 0.001511699          30 |2202220>
    9   0.034068 0.001160639          55 |2200222>

  Saving information for root: 0

--------------------------------------------------------------------------------
               Selected Configuration Interaction Excited States
  written by Jeffrey B. Schriber, Tianyuan Zhang, and Francesco A. Evangelista
--------------------------------------------------------------------------------

  ==> Calculation Information <==

  -----------------------------------------------------------------
    Multiplicity                             1    
    Symmetry                                 2    
    Number of roots                          1    
    Ms                                       0
    Excited Algorithm                        NONE
  -----------------------------------------------------------------
  Using 1 thread(s)
  Computing wavefunction for root 0

        ---------------------------------------------------------------
                      Adaptive Configuration Interaction
          written by Jeffrey B. Schriber and Francesco A. Evangelista
        ---------------------------------------------------------------

  ==> Reference Information <==

  There are 0 frozen orbitals.
  There are 7 active orbitals.

  ==> Calculation Information <==

  -----------------------------------------------------------------
    Multiplicity                             1    
    Symmetry                                 2    
    Number of roots                          1    
    Root used for properties                 0    
    Roots used for averaging                 1    
    Root averaging offset                    0    
    Sigma (Eh)                               0.00e+00
    Gamma (Eh^(-1))                          1.00e+00
    Convergence threshold                    1.00e-09
    Ms                                       0
    Diagonalization algorithm                SPARSE
    Excited Algorithm                        NONE
    Project out spin contaminants            True
    Enforce spin completeness of basis       True
    Enforce complete aimed selection         True
    Multiroot averaging                      Average
  -----------------------------------------------------------------
  Number of active orbitals: 7
  Number of active alpha electrons: 5
  Number of active beta electrons: 5

  ==> GAS Orbital Energies from SCF <==

    GAS        Energy  Index
    ------------------------
     1   -20.56899957      0
     2    -1.32060927      1
     2    -0.56393045      2
     2     0.20246590      3
     2    -0.49500394      4
     2    -0.67872419      5
     2     0.29271934      6
    ------------------------

  ==> Number of Electrons in GAS <==

    GAS  MAX  MIN
    -------------
      1    1    0
      2   10    0
    -------------

  ==> Possible Electron Occupations in GAS <==

    Config.  1_A  1_B  2_A  2_B
    ---------------------------
         1     1    0    4    5
         2     0    1    5    4
         3     0    0    5    5
    ---------------------------
    n_A/B: # of alpha/beta electrons in GASn

  ==> Building GAS Determinants <==

    Config.  #Determinants     Time/s
    ---------------------------------
         1              17  4.490e-05
         2              17  3.260e-05
         3               6  2.390e-05
    ---------------------------------
    Total:              40  1.491e-04
    ---------------------------------

  ==> Diagonalizing the Hamiltonian in the P + Q space <==

  Number of reference roots: 1

  ==> Computing 1 Coupling Lists <==

        α          4.200e-05 seconds
        β          4.160e-05 seconds

  ==> Computing 2 Coupling Lists <==

        αα         7.260e-05 seconds
        ββ         6.970e-05 seconds
        αβ         1.633e-04 seconds

  Davidson-Liu solver algorithm using SigmaVectorSparseList sigma algorithm

  Performing diagonalization of the H matrix
  Found 16 roots with 2S+1 = 1 *
  Found 20 roots with 2S+1 = 3
  Found 4 roots with 2S+1 = 5
  Total time spent diagonalizing H:   0.001002 s

    PQ-space CI Energy Root   0        = -55.982167626066 Eh =   0.0000 eV, S^2 = 0.000000
    PQ-space CI Energy + EPT2 Root   0 = -55.982167626066 Eh =   0.0000 eV


  ==> GAS Contribution Analysis <==

  Root 0:
    Config.  1_A  1_B  2_A  2_B  Contribution
    -----------------------------------------
         1     1    0    4    5  49.99936493%
         2     0    1    5    4  49.99936493%
         3     0    0    5    5   0.00127014%
    -----------------------------------------
               GAS1      GAS2    Contribution
    -----------------------------------------
                  0        10     0.00127014%
                  1         9    99.99872986%
    -----------------------------------------

  ==> ACI Natural Orbitals <==

        1A1     1.999984      2A1     1.999857      1B2     1.998497  
        3A1     1.636589      1B1     1.000000      4A1     0.999984  
        2B2     0.365089  

  ==> Excited state solver summary <==

  Iterations required:                         0
  Dimension of optimized determinant space:    40

  * Selected-CI Energy Root   0        = -55.982167626066 Eh =   0.0000 eV
  * Selected-CI Energy Root   0 + EPT2 = -55.982167626066 Eh =   0.0000 eV

  ==> Wavefunction Information <==

  Most important contributions to root   0:
    0  -0.626082 0.391978697          16 |+222-20>
    1  -0.626082 0.391978697          24 |-222+20>
    2  -0.289695 0.083923407          33 |-220+22>
    3  -0.289695 0.083923407           8 |+220-22>
    4  -0.097540 0.009513966          14 |+222--+>
    5  -0.097540 0.009513966          23 |-222++->
    6  -0.086454 0.007474336          22 |-222+-+>
    7  -0.086454 0.007474336          15 |+222-+->
    8   0.055081 0.003033940           5 |+2-+-22>
    9   0.055081 0.003033940          32 |-2+-+22>

  Saving information for root: 0

  ==> Energy Summary <==

    Multi.(2ms)  Irrep.  No.               Energy      <S^2>
    --------------------------------------------------------
       1  (  0)    A1     0      -76.189339598227   0.000000
    --------------------------------------------------------
       1  (  0)    B1     0      -55.982167626066   0.000000
    --------------------------------------------------------

  ==> Total Timings (s) for Computing Commutators <==

             [H1, T1]    [H1, T2]    [H2, T1]    [H2, T2]
    -----------------------------------------------------
    -> C0       0.000       0.001       0.001       0.062
    -> C1       0.000       0.002       0.002       0.034
    -> C2                   0.002       0.001       0.014
    -----------------------------------------------------


  Time to prepare integrals:        0.099 seconds
  Time to run job          :        0.196 seconds
  Total                    :        0.296 seconds
    GASSCF-DSRG-MRPT2 energy..............................................................PASSED

    Psi4 stopped on: Friday, 30 July 2021 07:34PM
    Psi4 wall time for execution: 0:00:00.94

*** Psi4 exiting successfully. Buy a developer a beer!
